version 2
run General-0-20191101-12:53:38-10744
attr configname General
attr datetime 20191101-12:53:38
attr experiment General
attr inifile omnetpp.ini
attr iterationvars ""
attr iterationvarsf ""
attr measurement ""
attr network CompleteNetwork7
attr processid 10744
attr repetition 0
attr replication #0
attr resultdir results
attr runnumber 0
attr seedset 0

vector 0 CompleteNetwork7.node_0 msg_Sent ETV
vector 1 CompleteNetwork7.node_0 spt_Sent ETV
vector 2 CompleteNetwork7.node_1 msg_Sent ETV
vector 3 CompleteNetwork7.node_1 spt_Sent ETV
vector 4 CompleteNetwork7.node_2 msg_Sent ETV
vector 5 CompleteNetwork7.node_2 spt_Sent ETV
vector 6 CompleteNetwork7.node_3 msg_Sent ETV
vector 7 CompleteNetwork7.node_3 spt_Sent ETV
vector 8 CompleteNetwork7.node_4 msg_Sent ETV
vector 9 CompleteNetwork7.node_4 spt_Sent ETV
vector 10 CompleteNetwork7.node_5 msg_Sent ETV
vector 11 CompleteNetwork7.node_5 spt_Sent ETV
vector 12 CompleteNetwork7.node_6 msg_Sent ETV
vector 13 CompleteNetwork7.node_6 spt_Sent ETV
vector 14 CompleteNetwork7.node_7 msg_Sent ETV
vector 15 CompleteNetwork7.node_7 spt_Sent ETV
vector 16 CompleteNetwork7.node_8 msg_Sent ETV
vector 17 CompleteNetwork7.node_8 spt_Sent ETV
vector 18 CompleteNetwork7.node_9 msg_Sent ETV
vector 19 CompleteNetwork7.node_9 spt_Sent ETV
vector 20 CompleteNetwork7.node_10 msg_Sent ETV
vector 21 CompleteNetwork7.node_10 spt_Sent ETV
vector 22 CompleteNetwork7.node_11 msg_Sent ETV
vector 23 CompleteNetwork7.node_11 spt_Sent ETV
vector 24 CompleteNetwork7.node_12 msg_Sent ETV
vector 25 CompleteNetwork7.node_12 spt_Sent ETV
vector 26 CompleteNetwork7.node_13 msg_Sent ETV
vector 27 CompleteNetwork7.node_13 spt_Sent ETV
vector 28 CompleteNetwork7.node_14 msg_Sent ETV
vector 29 CompleteNetwork7.node_14 spt_Sent ETV
vector 30 CompleteNetwork7.node_15 msg_Sent ETV
vector 31 CompleteNetwork7.node_15 spt_Sent ETV
vector 32 CompleteNetwork7.node_16 msg_Sent ETV
vector 33 CompleteNetwork7.node_16 spt_Sent ETV
vector 34 CompleteNetwork7.node_17 msg_Sent ETV
vector 35 CompleteNetwork7.node_17 spt_Sent ETV
vector 36 CompleteNetwork7.node_18 msg_Sent ETV
vector 37 CompleteNetwork7.node_18 spt_Sent ETV
vector 38 CompleteNetwork7.node_19 msg_Sent ETV
vector 39 CompleteNetwork7.node_19 spt_Sent ETV
vector 40 CompleteNetwork7.node_20 msg_Sent ETV
vector 41 CompleteNetwork7.node_20 spt_Sent ETV
vector 42 CompleteNetwork7.node_21 msg_Sent ETV
vector 43 CompleteNetwork7.node_21 spt_Sent ETV
vector 44 CompleteNetwork7.node_22 msg_Sent ETV
vector 45 CompleteNetwork7.node_22 spt_Sent ETV
vector 46 CompleteNetwork7.node_13 pc_Sent ETV
vector 47 CompleteNetwork7.node_12 pc_Sent ETV
vector 48 CompleteNetwork7.node_20 pc_Sent ETV
vector 49 CompleteNetwork7.node_15 pc_Sent ETV
vector 50 CompleteNetwork7.node_19 pc_Sent ETV
vector 51 CompleteNetwork7.node_22 pc_Sent ETV
vector 52 CompleteNetwork7.node_4 pc_Sent ETV
vector 53 CompleteNetwork7.node_9 pc_Sent ETV
vector 54 CompleteNetwork7.node_18 pc_Sent ETV
vector 55 CompleteNetwork7.node_21 pc_Sent ETV
vector 56 CompleteNetwork7.node_11 pc_Sent ETV
vector 57 CompleteNetwork7.node_14 pc_Sent ETV
vector 58 CompleteNetwork7.node_2 pc_Sent ETV
vector 59 CompleteNetwork7.node_6 pc_Sent ETV
vector 60 CompleteNetwork7.node_7 pc_Sent ETV
vector 61 CompleteNetwork7.node_17 pc_Sent ETV
vector 62 CompleteNetwork7.node_5 pc_Sent ETV
vector 63 CompleteNetwork7.node_3 pc_Sent ETV
vector 64 CompleteNetwork7.node_1 pc_Sent ETV
vector 65 CompleteNetwork7.node_0 pc_Sent ETV
vector 66 CompleteNetwork7.node_10 pc_Sent ETV
vector 67 CompleteNetwork7.node_8 pc_Sent ETV
vector 68 CompleteNetwork7.node_16 pc_Sent ETV
0	1	0.1	1
0	118	0.2	2
0	235	0.3	3
0	281	0.4	4
0	321	0.5	5
0	366	0.6	6
0	410	0.7	7
0	450	0.8	8
0	485	0.9	9
0	516	1	10
0	544	1.1	11
0	571	1.2	12
0	597	1.3	13
0	622	1.4	14
0	646	1.5	15
0	670	1.6	16
0	694	1.7	17
0	719	1.8	18
0	747	1.9	19
0	778	2	20
0	811	2.1	21
0	845	2.2	22
0	878	2.3	23
0	914	2.4	24
0	945	2.5	25
0	975	2.6	26
0	1004	2.7	27
0	1031	2.8	28
0	1057	2.9	29
0	1083	3	30
0	1108	3.1	31
0	1133	3.2	32
0	1157	3.3	33
0	1181	3.4	34
0	1206	3.5	35
0	1231	3.6	36
0	1259	3.7	37
0	1287	3.8	38
0	1315	3.9	39
0	1342	4	40
0	1369	4.1	41
0	1396	4.2	42
0	1423	4.3	43
0	1450	4.4	44
0	1476	4.5	45
0	1502	4.6	46
0	1526	4.7	47
0	1550	4.8	48
0	1574	4.9	49
0	1598	5	50
0	1621	5.1	51
0	1657	5.2	52
0	1737	5.3	53
0	1840	5.4	54
0	1918	5.5	55
0	1973	5.6	56
0	2020	5.7	57
0	2067	5.8	58
0	2109	5.9	59
0	2147	6	60
0	2181	6.1	61
0	2212	6.2	62
0	2240	6.3	63
0	2267	6.4	64
0	2295	6.5	65
0	2322	6.6	66
0	2352	6.7	67
0	2382	6.8	68
0	2414	6.9	69
0	2447	7	70
0	2478	7.1	71
0	2509	7.2	72
0	2540	7.3	73
0	2570	7.4	74
0	2599	7.5	75
0	2627	7.6	76
0	2652	7.7	77
0	2676	7.8	78
0	2700	7.9	79
0	2724	8	80
0	2748	8.1	81
0	2772	8.2	82
0	2796	8.3	83
0	2820	8.4	84
0	2844	8.5	85
0	2868	8.6	86
0	2892	8.7	87
0	2916	8.8	88
0	2941	8.9	89
0	2966	9	90
0	2992	9.1	91
0	3019	9.2	92
0	3047	9.3	93
0	3075	9.4	94
0	3106	9.5	95
0	3135	9.6	96
0	3162	9.7	97
0	3189	9.8	98
0	3216	9.9	99
0	3241	10	100
0	3265	10.1	101
0	3289	10.2	102
0	3313	10.3	103
0	3337	10.4	104
0	3361	10.5	105
0	3385	10.6	106
0	3409	10.7	107
0	3433	10.8	108
0	3457	10.9	109
0	3482	11	110
0	3507	11.1	111
0	3531	11.2	112
0	3556	11.3	113
0	3582	11.4	114
0	3609	11.5	115
0	3636	11.6	116
0	3664	11.7	117
0	3691	11.8	118
0	3718	11.9	119
0	3745	12	120
0	3770	12.1	121
0	3795	12.2	122
0	3819	12.3	123
0	3843	12.4	124
0	3867	12.5	125
0	3891	12.6	126
0	3915	12.7	127
0	3939	12.8	128
0	3963	12.9	129
0	3987	13	130
0	4011	13.1	131
0	4035	13.2	132
0	4058	13.3	133
0	4088	13.4	134
0	4146	13.5	135
0	4244	13.6	136
0	4338	13.7	137
0	4397	13.8	138
0	4443	13.9	139
0	4491	14	140
0	4537	14.1	141
0	4578	14.2	142
0	4611	14.3	143
0	4641	14.4	144
0	4669	14.5	145
0	4700	14.6	146
0	4729	14.7	147
0	4759	14.8	148
0	4795	14.9	149
0	4835	15	150
0	4872	15.1	151
0	4906	15.2	152
0	4937	15.3	153
0	4965	15.4	154
0	4992	15.5	155
0	5018	15.6	156
0	5044	15.7	157
0	5069	15.8	158
0	5095	15.9	159
0	5119	16	160
0	5143	16.1	161
0	5168	16.2	162
0	5195	16.3	163
0	5225	16.4	164
0	5255	16.5	165
0	5285	16.6	166
0	5315	16.7	167
0	5345	16.8	168
0	5378	16.9	169
0	5407	17	170
0	5433	17.1	171
0	5459	17.2	172
0	5483	17.3	173
0	5507	17.4	174
0	5531	17.5	175
0	5555	17.6	176
0	5579	17.7	177
0	5604	17.8	178
0	5629	17.9	179
0	5653	18	180
0	5679	18.1	181
0	5707	18.2	182
0	5735	18.3	183
0	5761	18.4	184
0	5788	18.5	185
0	5816	18.6	186
0	5844	18.7	187
0	5871	18.8	188
0	5896	18.9	189
0	5921	19	190
0	5945	19.1	191
0	5969	19.2	192
0	5993	19.3	193
0	6017	19.4	194
0	6041	19.5	195
0	6065	19.6	196
0	6088	19.7	197
0	6119	19.8	198
0	6179	19.9	199
0	6272	20	200
0	6355	20.1	201
0	6419	20.2	202
0	6473	20.3	203
0	6519	20.4	204
0	6566	20.5	205
0	6609	20.6	206
0	6647	20.7	207
0	6678	20.8	208
0	6705	20.9	209
0	6731	21	210
0	6761	21.1	211
0	6792	21.2	212
0	6825	21.3	213
0	6859	21.4	214
0	6896	21.5	215
0	6936	21.6	216
0	6973	21.7	217
0	7006	21.8	218
0	7035	21.9	219
0	7060	22	220
0	7084	22.1	221
0	7109	22.2	222
0	7133	22.3	223
0	7158	22.4	224
0	7184	22.5	225
0	7213	22.6	226
0	7244	22.7	227
0	7277	22.8	228
0	7311	22.9	229
0	7342	23	230
0	7369	23.1	231
0	7394	23.2	232
0	7419	23.3	233
0	7444	23.4	234
0	7469	23.5	235
0	7495	23.6	236
0	7524	23.7	237
0	7557	23.8	238
0	7589	23.9	239
0	7619	24	240
0	7646	24.1	241
0	7671	24.2	242
0	7696	24.3	243
0	7720	24.4	244
0	7744	24.5	245
0	7767	24.6	246
0	7797	24.7	247
0	7856	24.8	248
0	7953	24.9	249
0	8051	25	250
0	8113	25.1	251
0	8157	25.2	252
0	8202	25.3	253
0	8248	25.4	254
0	8292	25.5	255
0	8326	25.6	256
0	8355	25.7	257
0	8384	25.8	258
0	8412	25.9	259
0	8441	26	260
0	8478	26.1	261
0	8519	26.2	262
0	8556	26.3	263
0	8591	26.4	264
0	8624	26.5	265
0	8653	26.6	266
0	8679	26.7	267
0	8705	26.8	268
0	8730	26.9	269
0	8755	27	270
0	8781	27.1	271
0	8805	27.2	272
0	8829	27.3	273
0	8853	27.4	274
0	8878	27.5	275
0	8905	27.6	276
0	8936	27.7	277
0	8966	27.8	278
0	8998	27.9	279
0	9031	28	280
0	9061	28.1	281
0	9088	28.2	282
0	9114	28.3	283
0	9141	28.4	284
0	9167	28.5	285
0	9192	28.6	286
0	9217	28.7	287
0	9241	28.8	288
0	9265	28.9	289
0	9289	29	290
0	9314	29.1	291
0	9339	29.2	292
0	9363	29.3	293
0	9390	29.4	294
0	9418	29.5	295
0	9446	29.6	296
0	9477	29.7	297
0	9506	29.8	298
0	9532	29.9	299
0	9558	30	300
0	9583	30.1	301
0	9607	30.2	302
0	9631	30.3	303
0	9655	30.4	304
0	9679	30.5	305
0	9703	30.6	306
0	9727	30.7	307
0	9751	30.8	308
0	9775	30.9	309
0	9798	31	310
0	9830	31.1	311
0	9890	31.2	312
0	9987	31.3	313
0	10082	31.4	314
0	10138	31.5	315
0	10179	31.6	316
0	10223	31.7	317
0	10265	31.8	318
0	10306	31.9	319
0	10348	32	320
0	10383	32.1	321
0	10413	32.2	322
0	10443	32.3	323
0	10472	32.4	324
0	10502	32.5	325
0	10533	32.6	326
0	10562	32.7	327
0	10592	32.8	328
0	10623	32.9	329
0	10652	33	330
0	10683	33.1	331
0	10715	33.2	332
0	10746	33.3	333
0	10773	33.4	334
0	10798	33.5	335
0	10822	33.6	336
0	10846	33.7	337
0	10870	33.8	338
0	10894	33.9	339
0	10919	34	340
0	10944	34.1	341
0	10968	34.2	342
0	10993	34.3	343
0	11020	34.4	344
0	11048	34.5	345
0	11075	34.6	346
0	11101	34.7	347
0	11128	34.8	348
0	11156	34.9	349
0	11184	35	350
0	11210	35.1	351
0	11235	35.2	352
0	11260	35.3	353
0	11284	35.4	354
0	11308	35.5	355
0	11332	35.6	356
0	11356	35.7	357
0	11380	35.8	358
0	11403	35.9	359
0	11431	36	360
0	11476	36.1	361
0	11542	36.2	362
0	11621	36.3	363
0	11695	36.4	364
0	11761	36.5	365
0	11816	36.6	366
0	11866	36.7	367
0	11909	36.8	368
0	11948	36.9	369
0	11984	37	370
0	12016	37.1	371
0	12045	37.2	372
0	12073	37.3	373
0	12100	37.4	374
0	12128	37.5	375
0	12159	37.6	376
0	12195	37.7	377
0	12234	37.8	378
0	12272	37.9	379
0	12308	38	380
0	12340	38.1	381
0	12367	38.2	382
0	12393	38.3	383
0	12419	38.4	384
0	12444	38.5	385
0	12469	38.6	386
0	12494	38.7	387
0	12519	38.8	388
0	12544	38.9	389
0	12568	39	390
0	12593	39.1	391
0	12618	39.2	392
0	12645	39.3	393
0	12672	39.4	394
0	12699	39.5	395
0	12729	39.6	396
0	12758	39.7	397
0	12785	39.8	398
0	12811	39.9	399
0	12836	40	400
0	12861	40.1	401
0	12886	40.2	402
0	12910	40.3	403
0	12934	40.4	404
0	12957	40.5	405
0	12985	40.6	406
0	13026	40.7	407
0	13084	40.8	408
0	13147	40.9	409
0	13225	41	410
0	13305	41.1	411
0	13362	41.2	412
0	13404	41.3	413
0	13447	41.4	414
0	13488	41.5	415
0	13526	41.6	416
0	13561	41.7	417
0	13591	41.8	418
0	13618	41.9	419
0	13642	42	420
0	13666	42.1	421
0	13690	42.2	422
0	13715	42.3	423
0	13740	42.4	424
0	13767	42.5	425
0	13797	42.6	426
0	13834	42.7	427
0	13874	42.8	428
0	13914	42.9	429
0	13950	43	430
0	13980	43.1	431
0	14007	43.2	432
0	14034	43.3	433
0	14059	43.4	434
0	14084	43.5	435
0	14109	43.6	436
0	14134	43.7	437
0	14159	43.8	438
0	14185	43.9	439
0	14215	44	440
0	14245	44.1	441
0	14275	44.2	442
0	14305	44.3	443
0	14332	44.4	444
0	14358	44.5	445
0	14383	44.6	446
0	14407	44.7	447
0	14431	44.8	448
0	14455	44.9	449
0	14479	45	450
0	14502	45.1	451
0	14536	45.2	452
0	14609	45.3	453
0	14698	45.4	454
0	14778	45.5	455
0	14842	45.6	456
0	14898	45.7	457
0	14942	45.8	458
0	14981	45.9	459
0	15017	46	460
0	15052	46.1	461
0	15085	46.2	462
0	15123	46.3	463
0	15156	46.4	464
0	15189	46.5	465
0	15220	46.6	466
0	15250	46.7	467
0	15280	46.8	468
0	15308	46.9	469
0	15335	47	470
0	15365	47.1	471
0	15395	47.2	472
0	15427	47.3	473
0	15455	47.4	474
0	15484	47.5	475
0	15509	47.6	476
0	15534	47.7	477
0	15559	47.8	478
0	15584	47.9	479
0	15609	48	480
0	15633	48.1	481
0	15657	48.2	482
0	15681	48.3	483
0	15705	48.4	484
0	15729	48.5	485
0	15754	48.6	486
0	15784	48.7	487
0	15816	48.8	488
0	15848	48.9	489
0	15881	49	490
0	15908	49.1	491
0	15934	49.2	492
0	15959	49.3	493
0	15984	49.4	494
0	16009	49.5	495
0	16034	49.6	496
0	16059	49.7	497
0	16083	49.8	498
0	16107	49.9	499
0	16132	50	500
0	16157	50.1	501
0	16185	50.2	502
0	16216	50.3	503
0	16246	50.4	504
0	16275	50.5	505
0	16303	50.6	506
0	16328	50.7	507
0	16353	50.8	508
0	16378	50.9	509
0	16403	51	510
0	16428	51.1	511
0	16453	51.2	512
0	16478	51.3	513
0	16501	51.4	514
0	16533	51.5	515
0	16593	51.6	516
0	16687	51.7	517
0	16781	51.8	518
0	16841	51.9	519
0	16889	52	520
0	16935	52.1	521
0	16980	52.2	522
0	17021	52.3	523
0	17055	52.4	524
0	17089	52.5	525
0	17119	52.6	526
0	17154	52.7	527
0	17189	52.8	528
0	17222	52.9	529
0	17258	53	530
0	17292	53.1	531
0	17328	53.2	532
0	17362	53.3	533
0	17393	53.4	534
0	17422	53.5	535
0	17448	53.6	536
0	17472	53.7	537
0	17496	53.8	538
0	17520	53.9	539
0	17544	54	540
0	17568	54.1	541
0	17592	54.2	542
0	17617	54.3	543
0	17643	54.4	544
0	17670	54.5	545
0	17699	54.6	546
0	17729	54.7	547
0	17757	54.8	548
0	17788	54.9	549
0	17817	55	550
0	17844	55.1	551
0	17871	55.2	552
0	17897	55.3	553
0	17923	55.4	554
0	17948	55.5	555
0	17972	55.6	556
0	17996	55.7	557
0	18020	55.8	558
0	18044	55.9	559
0	18068	56	560
0	18092	56.1	561
0	18116	56.2	562
0	18141	56.3	563
0	18166	56.4	564
0	18192	56.5	565
0	18217	56.6	566
0	18243	56.7	567
0	18272	56.8	568
0	18301	56.9	569
0	18328	57	570
0	18355	57.1	571
0	18382	57.2	572
0	18407	57.3	573
0	18432	57.4	574
0	18457	57.5	575
0	18481	57.6	576
0	18505	57.7	577
0	18529	57.8	578
0	18553	57.9	579
0	18577	58	580
0	18601	58.1	581
0	18625	58.2	582
0	18648	58.3	583
0	18673	58.4	584
0	18698	58.5	585
0	18724	58.6	586
0	18752	58.7	587
0	18778	58.8	588
0	18802	58.9	589
0	18827	59	590
0	18852	59.1	591
0	18877	59.2	592
0	18900	59.3	593
0	18940	59.4	594
0	18993	59.5	595
0	19061	59.6	596
0	19153	59.7	597
0	19275	59.8	598
0	19349	59.9	599
0	19393	60	600
0	19459	60.1	601
0	19529	60.2	602
0	19588	60.3	603
0	19617	60.4	604
0	19646	60.5	605
0	19674	60.6	606
0	19702	60.7	607
0	19730	60.8	608
0	19758	60.9	609
0	19785	61	610
0	19815	61.1	611
0	19845	61.2	612
0	19875	61.3	613
0	19907	61.4	614
0	19938	61.5	615
0	19968	61.6	616
0	19997	61.7	617
0	20025	61.8	618
0	20055	61.9	619
0	20087	62	620
0	20118	62.1	621
0	20148	62.2	622
0	20180	62.3	623
0	20208	62.4	624
0	20236	62.5	625
0	20264	62.6	626
0	20291	62.7	627
0	20317	62.8	628
0	20342	62.9	629
0	20367	63	630
0	20394	63.1	631
0	20426	63.2	632
0	20457	63.3	633
0	20484	63.4	634
0	20510	63.5	635
0	20535	63.6	636
0	20560	63.7	637
0	20584	63.8	638
0	20608	63.9	639
0	20632	64	640
0	20656	64.1	641
0	20682	64.2	642
0	20706	64.3	643
0	20733	64.4	644
0	20760	64.5	645
0	20787	64.6	646
0	20819	64.7	647
0	20851	64.8	648
0	20881	64.9	649
0	20910	65	650
0	20938	65.1	651
0	20965	65.2	652
0	20991	65.3	653
0	21019	65.4	654
0	21049	65.5	655
0	21079	65.6	656
0	21110	65.7	657
0	21140	65.8	658
0	21171	65.9	659
0	21202	66	660
0	21236	66.1	661
0	21269	66.2	662
0	21302	66.3	663
0	21332	66.4	664
0	21361	66.5	665
0	21392	66.6	666
0	21424	66.7	667
0	21455	66.8	668
0	21487	66.9	669
0	21521	67	670
0	21554	67.1	671
0	21585	67.2	672
0	21616	67.3	673
0	21645	67.4	674
0	21671	67.5	675
0	21695	67.6	676
0	21719	67.7	677
0	21745	67.8	678
0	21770	67.9	679
0	21797	68	680
0	21823	68.1	681
0	21849	68.2	682
0	21875	68.3	683
0	21900	68.4	684
0	21925	68.5	685
0	21952	68.6	686
0	21979	68.7	687
0	22008	68.8	688
0	22037	68.9	689
0	22065	69	690
0	22092	69.1	691
0	22120	69.2	692
0	22148	69.3	693
0	22176	69.4	694
0	22204	69.5	695
0	22234	69.6	696
0	22263	69.7	697
0	22291	69.8	698
0	22317	69.9	699
0	22345	70	700
0	22371	70.1	701
0	22396	70.2	702
0	22419	70.3	703
0	22442	70.4	704
0	22465	70.5	705
0	22491	70.6	706
0	22517	70.7	707
0	22545	70.8	708
0	22571	70.9	709
0	22595	71	710
0	22621	71.1	711
0	22647	71.2	712
0	22673	71.3	713
0	22699	71.4	714
0	22725	71.5	715
0	22754	71.6	716
0	22786	71.7	717
0	22818	71.8	718
0	22847	71.9	719
0	22876	72	720
0	22904	72.1	721
0	22931	72.2	722
0	22964	72.3	723
0	22997	72.4	724
0	23030	72.5	725
0	23061	72.6	726
0	23091	72.7	727
0	23120	72.8	728
0	23151	72.9	729
0	23181	73	730
0	23211	73.1	731
0	23243	73.2	732
0	23275	73.3	733
0	23307	73.4	734
0	23338	73.5	735
0	23369	73.6	736
0	23399	73.7	737
0	23429	73.8	738
0	23457	73.9	739
0	23487	74	740
0	23519	74.1	741
0	23550	74.2	742
0	23580	74.3	743
0	23609	74.4	744
0	23637	74.5	745
0	23664	74.6	746
0	23690	74.7	747
0	23716	74.8	748
0	23742	74.9	749
0	23771	75	750
0	23800	75.1	751
0	23834	75.2	752
0	23868	75.3	753
0	23902	75.4	754
0	23936	75.5	755
0	23974	75.6	756
0	24009	75.7	757
0	24046	75.8	758
0	24082	75.9	759
0	24116	76	760
0	24149	76.1	761
0	24181	76.2	762
0	24211	76.3	763
0	24239	76.4	764
0	24267	76.5	765
0	24297	76.6	766
0	24326	76.7	767
0	24355	76.8	768
0	24382	76.9	769
0	24409	77	770
0	24436	77.1	771
0	24465	77.2	772
0	24497	77.3	773
0	24529	77.4	774
0	24560	77.5	775
0	24591	77.6	776
0	24622	77.7	777
0	24652	77.8	778
0	24682	77.9	779
0	24712	78	780
0	24741	78.1	781
0	24770	78.2	782
0	24800	78.3	783
0	24829	78.4	784
0	24858	78.5	785
0	24889	78.6	786
0	24923	78.7	787
0	24957	78.8	788
0	25000	78.9	789
0	25039	79	790
0	25079	79.1	791
0	25120	79.2	792
0	25160	79.3	793
0	25196	79.4	794
0	25229	79.5	795
0	25261	79.6	796
0	25293	79.7	797
0	25325	79.8	798
0	25357	79.9	799
0	25392	80	800
0	25431	80.1	801
0	25472	80.2	802
0	25511	80.3	803
0	25552	80.4	804
0	25593	80.5	805
0	25628	80.6	806
0	25662	80.7	807
0	25695	80.8	808
0	25726	80.9	809
0	25754	81	810
0	25782	81.1	811
0	25809	81.2	812
0	25838	81.3	813
0	25866	81.4	814
0	25894	81.5	815
0	25923	81.6	816
0	25951	81.7	817
0	25978	81.8	818
0	26008	81.9	819
0	26037	82	820
0	26068	82.1	821
0	26101	82.2	822
0	26136	82.3	823
0	26171	82.4	824
0	26205	82.5	825
0	26239	82.6	826
0	26272	82.7	827
0	26304	82.8	828
0	26336	82.9	829
0	26368	83	830
0	26400	83.1	831
0	26432	83.2	832
0	26461	83.3	833
0	26490	83.4	834
0	26523	83.5	835
0	26556	83.6	836
0	26590	83.7	837
0	26623	83.8	838
0	26654	83.9	839
0	26685	84	840
0	26714	84.1	841
0	26744	84.2	842
0	26775	84.3	843
0	26806	84.4	844
0	26837	84.5	845
0	26868	84.6	846
0	26902	84.7	847
0	26935	84.8	848
0	26970	84.9	849
0	27005	85	850
0	27040	85.1	851
0	27079	85.2	852
0	27117	85.3	853
0	27154	85.4	854
0	27190	85.5	855
0	27230	85.6	856
0	27268	85.7	857
0	27302	85.8	858
0	27337	85.9	859
0	27369	86	860
0	27399	86.1	861
0	27429	86.2	862
0	27458	86.3	863
0	27487	86.4	864
0	27516	86.5	865
0	27544	86.6	866
0	27571	86.7	867
0	27596	86.8	868
0	27620	86.9	869
0	27647	87	870
0	27674	87.1	871
0	27700	87.2	872
0	27726	87.3	873
0	27752	87.4	874
0	27778	87.5	875
0	27802	87.6	876
0	27829	87.7	877
0	27858	87.8	878
0	27887	87.9	879
0	27916	88	880
0	27943	88.1	881
0	27975	88.2	882
0	28005	88.3	883
0	28035	88.4	884
0	28067	88.5	885
0	28105	88.6	886
0	28143	88.7	887
0	28176	88.8	888
0	28211	88.9	889
0	28247	89	890
0	28281	89.1	891
0	28314	89.2	892
0	28345	89.3	893
0	28375	89.4	894
0	28403	89.5	895
0	28433	89.6	896
0	28465	89.7	897
0	28492	89.8	898
0	28519	89.9	899
0	28546	90	900
0	28574	90.1	901
0	28602	90.2	902
0	28630	90.3	903
0	28663	90.4	904
0	28696	90.5	905
0	28729	90.6	906
0	28761	90.7	907
0	28798	90.8	908
0	28834	90.9	909
0	28868	91	910
0	28901	91.1	911
0	28931	91.2	912
0	28960	91.3	913
0	28989	91.4	914
0	29017	91.5	915
0	29046	91.6	916
0	29073	91.7	917
0	29098	91.8	918
0	29123	91.9	919
0	29148	92	920
0	29175	92.1	921
0	29201	92.2	922
0	29227	92.3	923
0	29252	92.4	924
0	29277	92.5	925
0	29301	92.6	926
0	29325	92.7	927
0	29352	92.8	928
0	29381	92.9	929
0	29410	93	930
0	29439	93.1	931
0	29470	93.2	932
0	29501	93.3	933
0	29534	93.4	934
0	29566	93.5	935
0	29597	93.6	936
0	29628	93.7	937
0	29659	93.8	938
0	29689	93.9	939
0	29719	94	940
0	29750	94.1	941
0	29782	94.2	942
0	29813	94.3	943
0	29842	94.4	944
0	29873	94.5	945
0	29905	94.6	946
0	29940	94.7	947
0	29973	94.8	948
0	30007	94.9	949
0	30037	95	950
0	30065	95.1	951
0	30093	95.2	952
0	30118	95.3	953
0	30145	95.4	954
0	30174	95.5	955
0	30203	95.6	956
0	30232	95.7	957
0	30261	95.8	958
0	30289	95.9	959
0	30316	96	960
0	30342	96.1	961
0	30367	96.2	962
0	30392	96.3	963
0	30417	96.4	964
0	30442	96.5	965
0	30467	96.6	966
0	30492	96.7	967
0	30516	96.8	968
0	30540	96.9	969
0	30564	97	970
0	30588	97.1	971
0	30612	97.2	972
0	30638	97.3	973
0	30662	97.4	974
0	30685	97.5	975
0	30708	97.6	976
0	30731	97.7	977
0	30754	97.8	978
0	30777	97.9	979
0	30800	98	980
0	30823	98.1	981
0	30846	98.2	982
0	30869	98.3	983
0	30892	98.4	984
0	30915	98.5	985
0	30938	98.6	986
0	30961	98.7	987
0	30984	98.8	988
0	31007	98.9	989
0	31033	99	990
0	31059	99.1	991
0	31085	99.2	992
0	31111	99.3	993
0	31137	99.4	994
0	31163	99.5	995
0	31187	99.6	996
0	31211	99.7	997
0	31235	99.8	998
0	31259	99.9	999
0	31283	100	1000
0	31307	100.1	1001
0	31331	100.2	1002
0	31355	100.3	1003
0	31381	100.4	1004
0	31407	100.5	1005
0	31433	100.6	1006
0	31457	100.7	1007
0	31481	100.8	1008
0	31505	100.9	1009
0	31529	101	1010
0	31555	101.1	1011
0	31581	101.2	1012
0	31607	101.3	1013
0	31633	101.4	1014
0	31659	101.5	1015
0	31685	101.6	1016
0	31709	101.7	1017
0	31733	101.8	1018
0	31757	101.9	1019
0	31781	102	1020
0	31805	102.1	1021
0	31829	102.2	1022
0	31853	102.3	1023
0	31877	102.4	1024
0	31903	102.5	1025
0	31929	102.6	1026
0	31953	102.7	1027
0	31976	102.8	1028
0	31999	102.9	1029
0	32022	103	1030
0	32045	103.1	1031
0	32068	103.2	1032
0	32091	103.3	1033
0	32114	103.4	1034
0	32137	103.5	1035
0	32160	103.6	1036
0	32183	103.7	1037
0	32206	103.8	1038
0	32229	103.9	1039
0	32252	104	1040
0	32275	104.1	1041
0	32298	104.2	1042
0	32321	104.3	1043
0	32344	104.4	1044
0	32367	104.5	1045
0	32390	104.6	1046
0	32413	104.7	1047
0	32436	104.8	1048
0	32459	104.9	1049
0	32482	105	1050
0	32505	105.1	1051
0	32528	105.2	1052
0	32551	105.3	1053
0	32574	105.4	1054
0	32597	105.5	1055
0	32620	105.6	1056
0	32643	105.7	1057
0	32666	105.8	1058
0	32689	105.9	1059
0	32712	106	1060
0	32735	106.1	1061
0	32758	106.2	1062
0	32781	106.3	1063
0	32804	106.4	1064
0	32827	106.5	1065
0	32850	106.6	1066
0	32873	106.7	1067
0	32896	106.8	1068
0	32919	106.9	1069
0	32942	107	1070
0	32965	107.1	1071
0	32988	107.2	1072
0	33011	107.3	1073
0	33034	107.4	1074
0	33057	107.5	1075
0	33080	107.6	1076
0	33103	107.7	1077
0	33126	107.8	1078
0	33149	107.9	1079
0	33172	108	1080
0	33195	108.1	1081
0	33218	108.2	1082
0	33241	108.3	1083
0	33264	108.4	1084
0	33287	108.5	1085
0	33310	108.6	1086
0	33333	108.7	1087
0	33356	108.8	1088
0	33379	108.9	1089
0	33402	109	1090
0	33425	109.1	1091
0	33448	109.2	1092
0	33471	109.3	1093
0	33494	109.4	1094
0	33517	109.5	1095
0	33540	109.6	1096
0	33563	109.7	1097
0	33586	109.8	1098
0	33609	109.9	1099
0	33632	110	1100
0	33655	110.1	1101
0	33678	110.2	1102
0	33701	110.3	1103
0	33724	110.4	1104
0	33747	110.5	1105
0	33770	110.6	1106
0	33793	110.7	1107
0	33816	110.8	1108
0	33839	110.9	1109
0	33862	111	1110
0	33885	111.1	1111
0	33908	111.2	1112
0	33931	111.3	1113
0	33954	111.4	1114
0	33977	111.5	1115
0	34000	111.6	1116
0	34023	111.7	1117
0	34046	111.8	1118
0	34069	111.9	1119
0	34092	112	1120
0	34115	112.1	1121
0	34138	112.2	1122
0	34161	112.3	1123
0	34184	112.4	1124
0	34207	112.5	1125
0	34230	112.6	1126
0	34253	112.7	1127
0	34276	112.8	1128
0	34299	112.9	1129
0	34322	113	1130
0	34345	113.1	1131
0	34368	113.2	1132
0	34391	113.3	1133
0	34414	113.4	1134
0	34437	113.5	1135
0	34460	113.6	1136
0	34483	113.7	1137
0	34506	113.8	1138
0	34529	113.9	1139
0	34552	114	1140
0	34575	114.1	1141
0	34598	114.2	1142
0	34621	114.3	1143
0	34644	114.4	1144
0	34667	114.5	1145
0	34690	114.6	1146
0	34713	114.7	1147
0	34736	114.8	1148
0	34759	114.9	1149
0	34782	115	1150
0	34805	115.1	1151
0	34828	115.2	1152
0	34851	115.3	1153
0	34874	115.4	1154
0	34897	115.5	1155
0	34920	115.6	1156
0	34943	115.7	1157
0	34966	115.8	1158
0	34989	115.9	1159
0	35012	116	1160
0	35035	116.1	1161
0	35058	116.2	1162
0	35081	116.3	1163
0	35104	116.4	1164
0	35127	116.5	1165
0	35150	116.6	1166
0	35173	116.7	1167
0	35196	116.8	1168
0	35219	116.9	1169
0	35242	117	1170
0	35265	117.1	1171
0	35288	117.2	1172
0	35311	117.3	1173
0	35334	117.4	1174
0	35357	117.5	1175
0	35380	117.6	1176
0	35403	117.7	1177
0	35426	117.8	1178
0	35449	117.9	1179
0	35472	118	1180
0	35495	118.1	1181
0	35518	118.2	1182
0	35541	118.3	1183
0	35564	118.4	1184
0	35587	118.5	1185
0	35610	118.6	1186
0	35633	118.7	1187
0	35656	118.8	1188
0	35679	118.9	1189
0	35702	119	1190
0	35725	119.1	1191
0	35748	119.2	1192
0	35771	119.3	1193
0	35794	119.4	1194
0	35817	119.5	1195
0	35840	119.6	1196
0	35863	119.7	1197
0	35886	119.8	1198
0	35909	119.9	1199
1	1	0.1	1
1	1	0.1	2
1	1	0.1	3
1	118	0.2	4
1	118	0.2	5
1	118	0.2	6
1	235	0.3	7
1	410	0.7	8
1	485	0.9	9
1	845	2.2	10
1	878	2.3	11
1	945	2.5	12
1	1369	4.1	13
1	1840	5.4	14
1	1840	5.4	15
1	1840	5.4	16
1	1840	5.4	17
1	1840	5.4	18
1	1918	5.5	19
1	1973	5.6	20
1	2067	5.8	21
1	2067	5.8	22
1	2109	5.9	23
1	2147	6	24
1	2240	6.3	25
1	2240	6.3	26
1	2295	6.5	27
1	2295	6.5	28
1	2447	7	29
1	2509	7.2	30
1	2509	7.2	31
1	3019	9.2	32
1	3019	9.2	33
1	3135	9.6	34
1	3582	11.4	35
1	3691	11.8	36
1	4146	13.5	37
1	4146	13.5	38
1	4146	13.5	39
1	4146	13.5	40
1	4146	13.5	41
1	4244	13.6	42
1	4244	13.6	43
1	4338	13.7	44
1	4397	13.8	45
1	4443	13.9	46
1	4491	14	47
1	4537	14.1	48
1	4578	14.2	49
1	4835	15	50
1	4835	15	51
1	4835	15	52
1	4937	15.3	53
1	5378	16.9	54
1	5433	17.1	55
1	5844	18.7	56
1	5896	18.9	57
1	6355	20.1	58
1	6355	20.1	59
1	6355	20.1	60
1	6355	20.1	61
1	6355	20.1	62
1	6419	20.2	63
1	6473	20.3	64
1	6473	20.3	65
1	6519	20.4	66
1	6566	20.5	67
1	6609	20.6	68
1	6647	20.7	69
1	6761	21.1	70
1	6761	21.1	71
1	6936	21.6	72
1	7213	22.6	73
1	7342	23	74
1	7557	23.8	75
1	7671	24.2	76
1	7856	24.8	77
1	7856	24.8	78
1	7856	24.8	79
1	7856	24.8	80
1	7953	24.9	81
1	7953	24.9	82
1	8051	25	83
1	8051	25	84
1	8157	25.2	85
1	8157	25.2	86
1	8248	25.4	87
1	8591	26.4	88
1	8591	26.4	89
1	8653	26.6	90
1	8998	27.9	91
1	9477	29.7	92
1	9890	31.2	93
1	9890	31.2	94
1	9890	31.2	95
1	9890	31.2	96
1	9987	31.3	97
1	9987	31.3	98
1	10082	31.4	99
1	10223	31.7	100
1	10306	31.9	101
1	10383	32.1	102
1	10683	33.1	103
1	11156	34.9	104
1	11695	36.4	105
1	11695	36.4	106
1	11695	36.4	107
1	11695	36.4	108
1	11695	36.4	109
1	11761	36.5	110
1	11816	36.6	111
1	11816	36.6	112
1	11816	36.6	113
1	11909	36.8	114
1	11909	36.8	115
1	11948	36.9	116
1	12045	37.2	117
1	12045	37.2	118
1	12128	37.5	119
1	12128	37.5	120
1	12128	37.5	121
1	12419	38.4	122
1	12618	39.2	123
1	12618	39.2	124
1	12836	40	125
1	13026	40.7	126
1	13026	40.7	127
1	13026	40.7	128
1	13026	40.7	129
1	13026	40.7	130
1	13026	40.7	131
1	13026	40.7	132
1	13084	40.8	133
1	13147	40.9	134
1	13225	41	135
1	13225	41	136
1	13305	41.1	137
1	13305	41.1	138
1	13561	41.7	139
1	13834	42.7	140
1	13834	42.7	141
1	14007	43.2	142
1	14275	44.2	143
1	14383	44.6	144
1	14778	45.5	145
1	14778	45.5	146
1	14778	45.5	147
1	14778	45.5	148
1	14778	45.5	149
1	14778	45.5	150
1	14842	45.6	151
1	14898	45.7	152
1	14942	45.8	153
1	14981	45.9	154
1	14981	45.9	155
1	15052	46.1	156
1	15280	46.8	157
1	15280	46.8	158
1	15335	47	159
1	15335	47	160
1	15681	48.3	161
1	15848	48.9	162
1	16059	49.7	163
1	16216	50.3	164
1	16428	51.1	165
1	16593	51.6	166
1	16593	51.6	167
1	16593	51.6	168
1	16593	51.6	169
1	16593	51.6	170
1	16687	51.7	171
1	16781	51.8	172
1	16781	51.8	173
1	16889	52	174
1	16889	52	175
1	16889	52	176
1	16889	52	177
1	16935	52.1	178
1	17119	52.6	179
1	17119	52.6	180
1	17258	53	181
1	17258	53	182
1	17258	53	183
1	17422	53.5	184
1	17844	55.1	185
1	17844	55.1	186
1	17948	55.5	187
1	18355	57.1	188
1	18355	57.1	189
1	18457	57.5	190
1	18827	59	191
1	18827	59	192
2	2	0.1	1
2	119	0.2	2
2	236	0.3	3
2	282	0.4	4
2	322	0.5	5
2	367	0.6	6
2	411	0.7	7
2	451	0.8	8
2	486	0.9	9
2	517	1	10
2	545	1.1	11
2	572	1.2	12
2	598	1.3	13
2	623	1.4	14
2	647	1.5	15
2	671	1.6	16
2	695	1.7	17
2	720	1.8	18
2	748	1.9	19
2	779	2	20
2	812	2.1	21
2	846	2.2	22
2	879	2.3	23
2	915	2.4	24
2	946	2.5	25
2	976	2.6	26
2	1005	2.7	27
2	1032	2.8	28
2	1058	2.9	29
2	1084	3	30
2	1109	3.1	31
2	1134	3.2	32
2	1158	3.3	33
2	1182	3.4	34
2	1207	3.5	35
2	1232	3.6	36
2	1260	3.7	37
2	1288	3.8	38
2	1316	3.9	39
2	1343	4	40
2	1370	4.1	41
2	1397	4.2	42
2	1424	4.3	43
2	1451	4.4	44
2	1477	4.5	45
2	1503	4.6	46
2	1527	4.7	47
2	1551	4.8	48
2	1575	4.9	49
2	1599	5	50
2	1622	5.1	51
2	1658	5.2	52
2	1738	5.3	53
2	1841	5.4	54
2	1919	5.5	55
2	1974	5.6	56
2	2021	5.7	57
2	2068	5.8	58
2	2110	5.9	59
2	2148	6	60
2	2182	6.1	61
2	2213	6.2	62
2	2241	6.3	63
2	2268	6.4	64
2	2296	6.5	65
2	2323	6.6	66
2	2353	6.7	67
2	2383	6.8	68
2	2415	6.9	69
2	2448	7	70
2	2479	7.1	71
2	2510	7.2	72
2	2541	7.3	73
2	2571	7.4	74
2	2600	7.5	75
2	2628	7.6	76
2	2653	7.7	77
2	2677	7.8	78
2	2701	7.9	79
2	2725	8	80
2	2749	8.1	81
2	2773	8.2	82
2	2797	8.3	83
2	2821	8.4	84
2	2845	8.5	85
2	2869	8.6	86
2	2893	8.7	87
2	2917	8.8	88
2	2942	8.9	89
2	2967	9	90
2	2993	9.1	91
2	3020	9.2	92
2	3048	9.3	93
2	3076	9.4	94
2	3107	9.5	95
2	3136	9.6	96
2	3163	9.7	97
2	3190	9.8	98
2	3217	9.9	99
2	3242	10	100
2	3266	10.1	101
2	3290	10.2	102
2	3314	10.3	103
2	3338	10.4	104
2	3362	10.5	105
2	3386	10.6	106
2	3410	10.7	107
2	3434	10.8	108
2	3458	10.9	109
2	3483	11	110
2	3508	11.1	111
2	3532	11.2	112
2	3557	11.3	113
2	3583	11.4	114
2	3610	11.5	115
2	3637	11.6	116
2	3665	11.7	117
2	3692	11.8	118
2	3719	11.9	119
2	3746	12	120
2	3771	12.1	121
2	3796	12.2	122
2	3820	12.3	123
2	3844	12.4	124
2	3868	12.5	125
2	3892	12.6	126
2	3916	12.7	127
2	3940	12.8	128
2	3964	12.9	129
2	3988	13	130
2	4012	13.1	131
2	4036	13.2	132
2	4059	13.3	133
2	4089	13.4	134
2	4147	13.5	135
2	4245	13.6	136
2	4339	13.7	137
2	4398	13.8	138
2	4444	13.9	139
2	4492	14	140
2	4538	14.1	141
2	4579	14.2	142
2	4612	14.3	143
2	4642	14.4	144
2	4670	14.5	145
2	4701	14.6	146
2	4730	14.7	147
2	4760	14.8	148
2	4796	14.9	149
2	4836	15	150
2	4873	15.1	151
2	4907	15.2	152
2	4938	15.3	153
2	4966	15.4	154
2	4993	15.5	155
2	5019	15.6	156
2	5045	15.7	157
2	5070	15.8	158
2	5096	15.9	159
2	5120	16	160
2	5144	16.1	161
2	5169	16.2	162
2	5196	16.3	163
2	5226	16.4	164
2	5256	16.5	165
2	5286	16.6	166
2	5316	16.7	167
2	5346	16.8	168
2	5379	16.9	169
2	5408	17	170
2	5434	17.1	171
2	5460	17.2	172
2	5484	17.3	173
2	5508	17.4	174
2	5532	17.5	175
2	5556	17.6	176
2	5580	17.7	177
2	5605	17.8	178
2	5630	17.9	179
2	5654	18	180
2	5680	18.1	181
2	5708	18.2	182
2	5736	18.3	183
2	5762	18.4	184
2	5789	18.5	185
2	5817	18.6	186
2	5845	18.7	187
2	5872	18.8	188
2	5897	18.9	189
2	5922	19	190
2	5946	19.1	191
2	5970	19.2	192
2	5994	19.3	193
2	6018	19.4	194
2	6042	19.5	195
2	6066	19.6	196
2	6089	19.7	197
2	6120	19.8	198
2	6180	19.9	199
2	6273	20	200
2	6356	20.1	201
2	6420	20.2	202
2	6474	20.3	203
2	6520	20.4	204
2	6567	20.5	205
2	6610	20.6	206
2	6648	20.7	207
2	6679	20.8	208
2	6706	20.9	209
2	6732	21	210
2	6762	21.1	211
2	6793	21.2	212
2	6826	21.3	213
2	6860	21.4	214
2	6897	21.5	215
2	6937	21.6	216
2	6974	21.7	217
2	7007	21.8	218
2	7036	21.9	219
2	7061	22	220
2	7085	22.1	221
2	7110	22.2	222
2	7134	22.3	223
2	7159	22.4	224
2	7185	22.5	225
2	7214	22.6	226
2	7245	22.7	227
2	7278	22.8	228
2	7312	22.9	229
2	7343	23	230
2	7370	23.1	231
2	7395	23.2	232